# Region          : all 
# Cells           : 2720
# Volume          : 2.0709567487e-09
# Time            	max(U)	max(p)
3e-05             	(6.1619774413e-10 5.0882871367e-04 1.5626958541e-03)	1.5963694948e+06
6e-05             	(6.1653291346e-10 5.0611314529e-04 1.5638718376e-03)	1.4888684708e+06
9e-05             	(6.1640078573e-10 5.0603658500e-04 1.5638787797e-03)	1.4863769097e+06
0.00010435        	(6.1637086884e-10 5.0602322636e-04 1.5638788547e-03)	1.4861949753e+06
