# Region          : all 
# Cells           : 2720
# Volume          : 2.0709567487e-09
# Time            	max(U)	max(p)
3e-05             	(1.8638032188e-05 3.2746755159e-04 1.6932170317e-03)	1.0000167412e+05
4.97e-05          	(1.8638032183e-05 3.2745969782e-04 1.6932278705e-03)	1.0000167411e+05
