# Region          : all 
# Cells           : 2720
# Volume          : 2.0709567487e-09
# Time            	max(U)	max(p)
3e-05             	(1.8638409786e-05 3.2746615745e-04 1.6932011464e-03)	1.0000167397e+05
4.97e-05          	(1.8638409791e-05 3.2745830361e-04 1.6932119846e-03)	1.0000167396e+05
