# Region          : all 
# Cells           : 2720
# Volume          : 2.0709567487e-09
# Time            	max(U)	max(p)
3e-05             	(2.3858030270e-10 3.4242439027e-04 1.5748525227e-03)	1.1932430417e+06
6e-05             	(2.3131883386e-10 3.3220649928e-04 1.5979774217e-03)	1.1883633587e+06
9e-05             	(2.3105536111e-10 3.3183238987e-04 1.5990923668e-03)	1.1881730676e+06
0.00010975        	(2.3105059196e-10 3.3182344605e-04 1.5991168110e-03)	1.1881691412e+06
