# Residuals       
# Time            	p                 	Uy                	Uz                	h                 
5e-08             	9.9999998737e-01	1.0000000000e+00	1.0000000000e+00	1.0000000000e+00
1e-07             	7.2990558352e-02	5.6192551489e-01	6.9545866068e-01	1.6754670696e-01
1.5e-07           	8.5530463155e-02	5.4253198562e-01	1.9062455301e-01	7.7141431974e-02
2e-07             	3.6956172390e-01	2.7429288171e-01	5.1738272811e-02	4.7063413795e-02
2.5e-07           	1.4807417659e-01	1.0717454096e-01	1.4656302723e-01	3.3413256822e-02
3e-07             	2.1635923473e-01	3.0870839698e-01	1.3549016557e-01	2.5899649659e-02
3.5e-07           	2.5388231569e-01	3.4925213406e-01	1.0162620922e-01	2.1210715055e-02
4e-07             	1.7044982578e-01	2.9700964476e-01	1.2942561364e-01	1.8001593429e-02
4.5e-07           	3.1247248952e-01	2.4517100169e-01	4.0671384492e-02	1.5659295468e-02
5e-07             	2.6423122983e-01	1.7987518341e-01	4.6955864494e-02	1.3868269853e-02
5.5e-07           	2.1364429503e-01	1.2664565818e-01	6.2133541876e-02	1.2447866590e-02
6e-07             	5.8765604797e-01	9.6140112783e-02	1.7635908539e-02	1.1297982724e-02
6.5e-07           	2.2471579358e-01	8.1157393297e-02	4.0126695578e-02	1.0347686782e-02
7e-07             	2.1421998347e-01	8.8010931651e-02	3.6132129918e-02	9.5441841339e-03
7.5e-07           	5.7427104954e-01	8.4359998231e-02	7.5770288457e-03	8.8515545967e-03
8e-07             	2.7513806771e-01	7.2132137489e-02	2.2469809886e-02	8.2534080927e-03
8.5e-07           	3.3322781233e-01	6.0051811833e-02	1.7907921428e-02	7.7329708012e-03
9e-07             	3.2971159347e-01	4.8216084451e-02	8.4840321012e-03	7.2732319474e-03
9.5e-07           	1.9762668287e-01	3.9058380446e-02	1.6431635162e-02	6.8644259007e-03
1e-06             	2.3981183709e-01	3.2133354075e-02	9.3223700100e-03	6.4986511322e-03
1.05e-06          	4.8284261287e-01	2.6477395426e-02	6.0186583385e-03	6.1693116886e-03
1.1e-06           	3.2067175249e-01	2.4516304508e-02	9.2365683303e-03	5.8714735275e-03
1.15e-06          	3.8342964277e-01	2.1179552179e-02	4.4793880263e-03	5.6005029809e-03
1.2e-06           	1.9340001735e-01	1.5836821783e-02	4.9326701467e-03	5.3534269151e-03
1.25e-06          	1.5363590399e-01	1.5023681584e-02	6.0841293547e-03	5.1268157091e-03
1.3e-06           	1.7474372203e-01	1.4325529172e-02	2.7636330764e-03	4.9176682733e-03
1.35e-06          	2.2244183031e-01	1.0156937851e-02	3.3248377938e-03	4.7241453685e-03
1.4e-06           	2.0542293954e-01	7.8401603734e-03	3.1327178471e-03	4.5447490642e-03
1.45e-06          	1.2588661497e-01	7.4520030386e-03	1.7066930962e-03	4.3780931196e-03
1.5e-06           	8.8880466852e-02	6.0567531585e-03	2.7490434437e-03	4.2227784449e-03
1.55e-06          	8.7798249568e-02	4.3387220508e-03	2.2326496976e-03	4.0777146338e-03
1.6e-06           	8.3232601124e-02	4.3118130350e-03	1.3469131619e-03	3.9419245272e-03
1.65e-06          	6.9342330293e-02	4.5103802634e-03	1.8069958982e-03	3.8143879160e-03
1.7e-06           	5.9202846225e-02	3.7734095091e-03	1.4505744364e-03	3.6943041647e-03
1.75e-06          	4.6353356437e-02	2.5860840095e-03	1.3639982969e-03	3.5808358891e-03
1.8e-06           	3.6170742194e-02	1.9780758392e-03	1.5327619044e-03	3.4735253686e-03
1.85e-06          	2.9425832642e-02	1.9475793047e-03	1.2843532238e-03	3.3719474123e-03
1.9e-06           	2.7157507267e-02	1.5504955647e-03	1.0753464548e-03	3.2756677734e-03
1.95e-06          	2.4552502280e-02	1.5670968686e-03	1.0606334689e-03	3.1843612512e-03
2e-06             	1.8343697642e-02	1.8979910808e-03	1.0073545722e-03	3.0976332082e-03
2.05e-06          	1.3885904204e-02	1.8721668630e-03	1.1272536544e-03	3.0151333790e-03
2.1e-06           	1.2912029420e-02	1.5296304675e-03	1.0988634506e-03	2.9364891218e-03
2.15e-06          	1.1651348911e-02	1.1592269490e-03	9.6327427259e-04	2.8613314531e-03
2.2e-06           	8.7872518237e-03	9.6521260052e-04	9.0016228892e-04	2.7893536932e-03
2.25e-06          	7.5477146100e-03	9.2355883622e-04	8.8426956325e-04	2.7204036945e-03
2.3e-06           	6.6509909547e-03	1.0096138637e-03	9.1073302279e-04	2.6542797541e-03
2.35e-06          	5.8313913014e-03	1.1565279424e-03	9.3258728022e-04	2.5908725806e-03
2.4e-06           	4.6046814801e-03	1.2267437676e-03	8.9869345110e-04	2.5300361626e-03
2.45e-06          	3.8534993640e-03	1.1628853171e-03	8.4196988111e-04	2.4716142539e-03
2.5e-06           	3.6067100823e-03	1.0188124487e-03	8.0995999100e-04	2.4154300643e-03
2.55e-06          	3.0783975680e-03	8.9290008843e-04	8.0547757666e-04	2.3612979972e-03
2.6e-06           	2.3299810457e-03	8.3768574393e-04	8.1306783278e-04	2.3090662927e-03
2.65e-06          	2.1934669928e-03	8.5294937660e-04	8.0529083049e-04	2.2585824101e-03
2.7e-06           	2.0300058974e-03	8.9820966970e-04	7.8021053205e-04	2.2098101338e-03
2.75e-06          	1.6606996519e-03	9.2339767356e-04	7.5345821690e-04	2.1626901635e-03
2.8e-06           	1.3910249504e-03	9.0862209884e-04	7.3753259167e-04	2.1171516626e-03
2.85e-06          	1.2581465885e-03	8.6285328384e-04	7.3082164464e-04	2.0731105279e-03
2.9e-06           	1.1510680982e-03	8.0963284947e-04	7.2357477003e-04	2.0304344557e-03
2.95e-06          	9.8560783681e-04	7.7261934023e-04	7.0994927966e-04	1.9890296680e-03
3e-06             	9.0497543567e-04	7.5770398382e-04	6.9236741219e-04	1.9488030740e-03
3.05e-06          	8.3822834694e-04	7.5612665122e-04	6.7662941210e-04	1.9097435485e-03
3.1e-06           	7.5181914030e-04	7.5535289655e-04	6.6520828130e-04	1.8718142697e-03
3.15e-06          	6.6632003346e-04	7.4654841610e-04	6.5588541789e-04	1.8349459807e-03
3.2e-06           	6.1868310722e-04	7.2826700615e-04	6.4513115051e-04	1.7990508874e-03
3.25e-06          	5.7520166872e-04	7.0493275472e-04	6.3217765619e-04	1.7640587178e-03
3.3e-06           	5.2243131416e-04	6.8240652267e-04	6.1885399799e-04	1.7299178893e-03
3.35e-06          	4.9467844412e-04	6.6499651195e-04	6.0698993761e-04	1.6966116618e-03
3.4e-06           	4.7878041058e-04	6.5299667428e-04	5.9672985930e-04	1.6641146294e-03
3.45e-06          	4.5645031294e-04	6.4366454147e-04	5.8679085437e-04	1.6324351944e-03
3.5e-06           	4.3777281874e-04	6.3385558850e-04	5.7622677646e-04	1.6015576378e-03
3.55e-06          	4.1576823925e-04	6.2164349369e-04	5.6514745257e-04	1.5714520098e-03
3.6e-06           	3.9908078669e-04	6.0736729643e-04	5.5425008475e-04	1.5421081256e-03
3.65e-06          	3.8181480944e-04	5.9252202895e-04	5.4401206329e-04	1.5135044718e-03
3.7e-06           	3.6986808292e-04	5.7858270887e-04	5.3441565075e-04	1.4856294412e-03
3.75e-06          	3.6284869985e-04	5.6646976214e-04	5.2495798020e-04	1.4584588960e-03
3.8e-06           	3.5517297328e-04	5.5582376326e-04	5.1535749224e-04	1.4319677059e-03
3.85e-06          	3.4613437781e-04	5.4559871196e-04	5.0577841796e-04	1.4061281654e-03
3.9e-06           	3.3640903135e-04	5.3507158962e-04	4.9643301476e-04	1.3809197965e-03
3.95e-06          	3.2691175855e-04	5.2395959745e-04	4.8742015500e-04	1.3563196228e-03
4e-06             	3.1977085821e-04	5.1264448683e-04	4.7863697554e-04	1.3323058522e-03
4.05e-06          	3.1417277961e-04	5.0171328596e-04	4.6995242236e-04	1.3088605543e-03
4.1e-06           	3.0895257812e-04	4.9137262298e-04	4.6136524894e-04	1.2859625335e-03
4.15e-06          	3.0368801487e-04	4.8154820050e-04	4.5293187670e-04	1.2635888263e-03
4.2e-06           	2.9784800454e-04	4.7207844430e-04	4.4468912486e-04	1.2417255566e-03
4.25e-06          	2.9110751343e-04	4.6271971927e-04	4.3664368895e-04	1.2203546875e-03
4.3e-06           	2.8677750662e-04	4.5337520353e-04	4.2874715239e-04	1.1994598223e-03
4.35e-06          	2.8206780273e-04	4.4405817400e-04	4.2096540712e-04	1.1790243692e-03
4.4e-06           	2.7645714974e-04	4.3489094550e-04	4.1330859953e-04	1.1590340446e-03
4.45e-06          	2.7107139334e-04	4.2604681614e-04	4.0580748357e-04	1.1394743315e-03
4.5e-06           	2.6532717919e-04	4.1749761511e-04	3.9847544820e-04	1.1203334966e-03
4.55e-06          	2.5933164818e-04	4.0915830898e-04	3.9129590460e-04	1.1015997189e-03
4.6e-06           	2.5368523136e-04	4.0094765250e-04	3.8424333221e-04	1.0832606663e-03
4.65e-06          	2.4832794700e-04	3.9290188626e-04	3.7730514378e-04	1.0653047779e-03
4.7e-06           	2.4334341550e-04	3.8503097271e-04	3.7048725806e-04	1.0477202264e-03
4.75e-06          	2.3879078226e-04	3.7727162224e-04	3.6379621732e-04	1.0304934060e-03
4.8e-06           	2.3392257004e-04	3.6962985008e-04	3.5723193261e-04	1.0136143914e-03
4.85e-06          	2.2914648926e-04	3.6216985497e-04	3.5079442027e-04	9.9707430747e-04
4.9e-06           	2.2508011574e-04	3.5494887501e-04	3.4448759510e-04	9.8086449779e-04
4.95e-06          	2.2170456239e-04	3.4791363453e-04	3.3830389052e-04	9.6497638825e-04
5e-06             	2.1775792665e-04	3.4094842345e-04	3.3222597446e-04	9.4940094307e-04
5.05e-06          	2.1384527464e-04	3.3405435782e-04	3.2625641291e-04	9.3413051871e-04
5.1e-06           	2.0972005424e-04	3.2733948957e-04	3.2039380975e-04	9.1915588037e-04
5.15e-06          	2.0539820834e-04	3.2080198586e-04	3.1464564535e-04	9.0446875402e-04
5.2e-06           	2.0150288951e-04	3.1440390963e-04	3.0900085532e-04	8.9006089455e-04
5.25e-06          	1.9759510907e-04	3.0811540848e-04	3.0345288361e-04	8.7592617113e-04
5.3e-06           	1.9388909804e-04	3.0194114748e-04	2.9800233467e-04	8.6205772237e-04
5.35e-06          	1.8992125334e-04	2.9593204989e-04	2.9265723659e-04	8.4844859873e-04
5.4e-06           	1.8591918138e-04	2.9008694876e-04	2.8742431006e-04	8.3509240172e-04
5.45e-06          	1.8189585858e-04	2.8434558377e-04	2.8229935493e-04	8.2198360751e-04
5.5e-06           	1.7808525093e-04	2.7868086497e-04	2.7726210026e-04	8.0911650766e-04
5.55e-06          	1.7496790348e-04	2.7312479745e-04	2.7230247911e-04	7.9648524183e-04
5.6e-06           	1.7186091773e-04	2.6768712042e-04	2.6742943407e-04	7.8408324460e-04
5.65e-06          	1.6823216516e-04	2.6238055287e-04	2.6265569854e-04	7.7190500752e-04
5.7e-06           	1.6487736989e-04	2.5720888534e-04	2.5797596167e-04	7.5994457411e-04
5.75e-06          	1.6142363922e-04	2.5213204516e-04	2.5337905372e-04	7.4819688719e-04
5.8e-06           	1.5839518767e-04	2.4713128541e-04	2.4885374030e-04	7.3665749425e-04
5.85e-06          	1.5555523632e-04	2.4224698007e-04	2.4440506419e-04	7.2532157988e-04
5.9e-06           	1.5281248693e-04	2.3747659275e-04	2.4004934010e-04	7.1418483631e-04
5.95e-06          	1.4987000744e-04	2.3281568634e-04	2.3579004855e-04	7.0324261221e-04
6e-06             	1.4680325330e-04	2.2825473948e-04	2.3161478487e-04	6.9249109853e-04
6.05e-06          	1.4400538873e-04	2.2379490278e-04	2.2750658258e-04	6.8192636074e-04
6.1e-06           	1.4145048263e-04	2.1941649841e-04	2.2346135521e-04	6.7154428184e-04
6.15e-06          	1.3880154122e-04	2.1510718715e-04	2.1948602820e-04	6.6134057243e-04
6.2e-06           	1.3659953199e-04	2.1087979635e-04	2.1558656010e-04	6.5131131753e-04
6.25e-06          	1.3479469691e-04	2.0672211439e-04	2.1176602948e-04	6.4145308541e-04
6.3e-06           	1.3254112177e-04	2.0265121363e-04	2.0801747894e-04	6.3176202759e-04
6.35e-06          	1.2999025661e-04	1.9868806395e-04	2.0433348562e-04	6.2223447595e-04
6.4e-06           	1.2763863966e-04	1.9484534724e-04	2.0071140513e-04	6.1286709152e-04
6.45e-06          	1.2543484122e-04	1.9110234680e-04	1.9715491538e-04	6.0365657739e-04
6.5e-06           	1.2322057715e-04	1.8742145715e-04	1.9366727810e-04	5.9460008266e-04
6.55e-06          	1.2085225021e-04	1.8378571038e-04	1.9024731357e-04	5.8569436279e-04
6.6e-06           	1.1840695044e-04	1.8019646602e-04	1.8689228591e-04	5.7693632958e-04
6.65e-06          	1.1616526480e-04	1.7667918995e-04	1.8359806953e-04	5.6832294935e-04
6.7e-06           	1.1372907916e-04	1.7324634981e-04	1.8036256960e-04	5.5985120400e-04
6.75e-06          	1.1142632093e-04	1.6990602287e-04	1.7718391995e-04	5.5151827565e-04
6.8e-06           	1.0950762401e-04	1.6663890348e-04	1.7406286660e-04	5.4332143622e-04
6.85e-06          	1.0741715865e-04	1.6342467829e-04	1.7099906247e-04	5.3525796626e-04
6.9e-06           	1.0548237240e-04	1.6027460344e-04	1.6798752993e-04	5.2732535178e-04
6.95e-06          	1.0361231353e-04	1.5719703751e-04	1.6502499970e-04	5.1952105590e-04
7e-06             	1.0174401648e-04	1.5416595051e-04	1.6211614027e-04	5.1184262460e-04
7.05e-06          	9.9750686882e-05	1.5118641779e-04	1.5926445747e-04	5.0428751370e-04
7.1e-06           	9.7933980454e-05	1.4829054101e-04	1.5646965207e-04	4.9685345473e-04
7.15e-06          	9.6214359939e-05	1.4546797025e-04	1.5373018252e-04	4.8953818386e-04
7.2e-06           	9.4341649201e-05	1.4270150804e-04	1.5103857672e-04	4.8233946016e-04
7.25e-06          	9.2598573685e-05	1.3999074779e-04	1.4839091254e-04	4.7525511976e-04
7.3e-06           	9.1163593100e-05	1.3732955697e-04	1.4578995286e-04	4.6828297096e-04
7.35e-06          	8.9528370249e-05	1.3471033007e-04	1.4323869528e-04	4.6142089830e-04
7.4e-06           	8.8045572806e-05	1.3213545859e-04	1.4073519900e-04	4.5466682679e-04
7.45e-06          	8.6604171191e-05	1.2961390059e-04	1.3827531234e-04	4.4801885591e-04
7.5e-06           	8.5015476765e-05	1.2715846872e-04	1.3585638067e-04	4.4147502868e-04
7.55e-06          	8.3462898169e-05	1.2476069486e-04	1.3348057539e-04	4.3503333768e-04
7.6e-06           	8.1946970482e-05	1.2240396420e-04	1.3114877672e-04	4.2869199018e-04
7.65e-06          	8.0612181441e-05	1.2007225937e-04	1.2886111564e-04	4.2244918806e-04
7.7e-06           	7.9205960042e-05	1.1777623244e-04	1.2661382521e-04	4.1630314313e-04
7.75e-06          	7.7963174849e-05	1.1552977273e-04	1.2440310774e-04	4.1025219187e-04
7.8e-06           	7.6627108230e-05	1.1334445730e-04	1.2223137805e-04	4.0429460908e-04
7.85e-06          	7.5169619206e-05	1.1122292236e-04	1.2010084164e-04	3.9842873330e-04
7.9e-06           	7.3698078805e-05	1.0914640420e-04	1.1801258982e-04	3.9265292147e-04
7.95e-06          	7.2280967359e-05	1.0709879872e-04	1.1596403763e-04	3.8696556123e-04
8e-06             	7.0986042729e-05	1.0508858365e-04	1.1395117577e-04	3.8136515395e-04
8.05e-06          	6.9899373248e-05	1.0311735361e-04	1.1197237573e-04	3.7585014991e-04
8.1e-06           	6.8694992706e-05	1.0118374153e-04	1.1002835422e-04	3.7041905245e-04
8.15e-06          	6.7504625889e-05	9.9298957240e-05	1.0811893044e-04	3.6507045105e-04
8.2e-06           	6.6320018564e-05	9.7451952049e-05	1.0624553371e-04	3.5980290085e-04
8.25e-06          	6.5040778844e-05	9.5634849250e-05	1.0440824068e-04	3.5461502428e-04
8.3e-06           	6.3885042085e-05	9.3845179122e-05	1.0260275391e-04	3.4950547953e-04
8.35e-06          	6.2827831244e-05	9.2088467775e-05	1.0082720155e-04	3.4447294631e-04
8.4e-06           	6.1864905307e-05	9.0369683624e-05	9.9083040227e-05	3.3951610600e-04
8.45e-06          	6.0945847303e-05	8.8693995023e-05	9.7370268771e-05	3.3463368311e-04
8.5e-06           	5.9955293491e-05	8.7052023329e-05	9.5688293819e-05	3.2982442959e-04
8.55e-06          	5.8925768471e-05	8.5433156388e-05	9.4036232334e-05	3.2508713508e-04
8.6e-06           	5.7884458062e-05	8.3835103320e-05	9.2411628091e-05	3.2042066208e-04
8.65e-06          	5.6936152056e-05	8.2261338648e-05	9.0814845193e-05	3.1582381839e-04
8.7e-06           	5.5949650255e-05	8.0725586018e-05	8.9248761095e-05	3.1129544892e-04
8.75e-06          	5.4974362425e-05	7.9242563065e-05	8.7712683545e-05	3.0683442616e-04
8.8e-06           	5.3990555513e-05	7.7799816991e-05	8.6205560093e-05	3.0243965559e-04
8.85e-06          	5.3032046222e-05	7.6385074536e-05	8.4723875676e-05	2.9811003272e-04
8.9e-06           	5.2145683548e-05	7.4992018975e-05	8.3267609277e-05	2.9384449926e-04
8.95e-06          	5.1160202959e-05	7.3625701385e-05	8.1837031015e-05	2.8964198169e-04
9e-06             	5.0226348399e-05	7.2284611766e-05	8.0433088786e-05	2.8550145037e-04
9.05e-06          	4.9319760182e-05	7.0963601041e-05	7.9056194589e-05	2.8142192346e-04
9.1e-06           	4.8401743236e-05	6.9669278339e-05	7.7704514124e-05	2.7740242377e-04
9.15e-06          	4.7609629503e-05	6.8402450520e-05	7.6375555904e-05	2.7344195527e-04
9.2e-06           	4.6808084944e-05	6.7162175587e-05	7.5068668250e-05	2.6953959844e-04
9.25e-06          	4.6056864769e-05	6.5948160262e-05	7.3784443148e-05	2.6569441664e-04
9.3e-06           	4.5198452603e-05	6.4756466327e-05	7.2525655528e-05	2.6190550164e-04
9.35e-06          	4.4384699502e-05	6.3586955820e-05	7.1289777323e-05	2.5817196625e-04
9.4e-06           	4.3577619862e-05	6.2436212113e-05	7.0075566475e-05	2.5449293660e-04
9.45e-06          	4.2827502701e-05	6.1306987656e-05	6.8880374333e-05	2.5086755577e-04
9.5e-06           	4.2171872692e-05	6.0202629377e-05	6.7706107473e-05	2.4729496802e-04
9.55e-06          	4.1475498990e-05	5.9125291079e-05	6.6554059211e-05	2.4377433501e-04
9.6e-06           	4.0754493637e-05	5.8066546218e-05	6.5422720271e-05	2.4030483832e-04
9.65e-06          	4.0124244331e-05	5.7019016006e-05	6.4309591457e-05	2.3688567533e-04
9.7e-06           	3.9387143348e-05	5.5980290421e-05	6.3215005257e-05	2.3351605492e-04
9.75e-06          	3.8693915082e-05	5.4961935019e-05	6.2139512437e-05	2.3019520707e-04
9.8e-06           	3.8144140245e-05	5.3974014906e-05	6.1083440307e-05	2.2692237179e-04
9.85e-06          	3.7504179307e-05	5.3016840528e-05	6.0047645642e-05	2.2369680559e-04
9.9e-06           	3.6812347763e-05	5.2084816061e-05	5.9029778170e-05	2.2051778284e-04
9.95e-06          	3.6117215004e-05	5.1164052876e-05	5.8029862402e-05	2.1738458295e-04
1e-05             	3.5470154218e-05	5.0255470300e-05	5.7046571578e-05	2.1429649803e-04
1.005e-05         	3.4838196708e-05	4.9361639380e-05	5.6081347348e-05	2.1125283358e-04
1.01e-05          	3.4177777390e-05	4.8487703528e-05	5.5133809200e-05	2.0825290651e-04
1.015e-05         	3.3566502462e-05	4.7635656581e-05	5.4203274546e-05	2.0529604787e-04
1.02e-05          	3.3012284472e-05	4.6803629264e-05	5.3288116573e-05	2.0238160150e-04
1.025e-05         	3.2420224155e-05	4.5984067723e-05	5.2388793138e-05	1.9950892259e-04
1.03e-05          	3.1835401288e-05	4.5179123658e-05	5.1504240505e-05	1.9667745082e-04
1.035e-05         	3.1304939437e-05	4.4388124932e-05	5.0634907154e-05	1.9388655712e-04
1.04e-05          	3.0773460611e-05	4.3613057628e-05	4.9781829654e-05	1.9113562212e-04
1.045e-05         	3.0176887813e-05	4.2851445673e-05	4.8945375467e-05	1.8842402919e-04
1.05e-05          	2.9634277888e-05	4.2106524851e-05	4.8122834133e-05	1.8575117528e-04
1.055e-05         	2.9191164243e-05	4.1376324166e-05	4.7313439486e-05	1.8311649185e-04
1.06e-05          	2.8693766932e-05	4.0658102766e-05	4.6517644305e-05	1.8051939520e-04
1.065e-05         	2.8128354800e-05	3.9950921559e-05	4.5736827405e-05	1.7795932319e-04
1.07e-05          	2.7637013242e-05	3.9261167669e-05	4.4968897897e-05	1.7543574024e-04
1.075e-05         	2.7173211686e-05	3.8586781550e-05	4.4214860543e-05	1.7294808592e-04
1.08e-05          	2.6760337087e-05	3.7925540216e-05	4.3474820099e-05	1.7049584286e-04
1.085e-05         	2.6330580521e-05	3.7275020075e-05	4.2747526653e-05	1.6807848362e-04
1.09e-05          	2.5897140942e-05	3.6635974160e-05	4.2031147940e-05	1.6569548178e-04
1.095e-05         	2.5486724803e-05	3.6009641897e-05	4.1327643876e-05	1.6334632640e-04
1.1e-05           	2.5078586479e-05	3.5397729765e-05	4.0636748044e-05	1.6103051289e-04
1.105e-05         	2.4680663687e-05	3.4795265709e-05	3.9957759695e-05	1.5874754036e-04
1.11e-05          	2.4282595145e-05	3.4200049257e-05	3.9290986475e-05	1.5649692587e-04
1.115e-05         	2.3900047807e-05	3.3610830146e-05	3.8636029064e-05	1.5427819367e-04
1.12e-05          	2.3463023379e-05	3.3031637804e-05	3.7992240899e-05	1.5209087356e-04
1.125e-05         	2.3077149372e-05	3.2467838007e-05	3.7360645511e-05	1.4993449241e-04
1.13e-05          	2.2667132676e-05	3.1922202907e-05	3.6740045607e-05	1.4780859160e-04
1.135e-05         	2.2320177815e-05	3.1390247754e-05	3.6130396265e-05	1.4571272950e-04
1.14e-05          	2.1919598982e-05	3.0867114494e-05	3.5532116613e-05	1.4364646677e-04
1.145e-05         	2.1545631237e-05	3.0353164827e-05	3.4944272802e-05	1.4160937097e-04
1.15e-05          	2.1219314606e-05	2.9847583174e-05	3.4366338891e-05	1.3960101671e-04
1.155e-05         	2.0830100929e-05	2.9353800678e-05	3.3799331572e-05	1.3762098338e-04
1.16e-05          	2.0446236333e-05	2.8871437749e-05	3.3241904147e-05	1.3566886016e-04
1.165e-05         	2.0070632634e-05	2.8397687187e-05	3.2694984524e-05	1.3374424629e-04
1.17e-05          	1.9755046704e-05	2.7931969536e-05	3.2156611713e-05	1.3184674164e-04
1.175e-05         	1.9383638019e-05	2.7473192563e-05	3.1628193408e-05	1.2997595245e-04
1.18e-05          	1.9013929286e-05	2.7024980189e-05	3.1109466005e-05	1.2813149468e-04
1.185e-05         	1.8690556814e-05	2.6587328858e-05	3.0599886335e-05	1.2631298962e-04
1.19e-05          	1.8420758716e-05	2.6157790257e-05	3.0099738158e-05	1.2452006433e-04
1.195e-05         	1.8152675680e-05	2.5735914883e-05	2.9609014931e-05	1.2275235180e-04
1.2e-05           	1.7820556453e-05	2.5323717126e-05	2.9125994115e-05	1.2100950107e-04
1.205e-05         	1.7474317394e-05	2.4919635419e-05	2.8651321065e-05	1.1929121951e-04
1.21e-05          	1.7174772312e-05	2.4523356091e-05	2.8183742625e-05	1.1759713625e-04
1.215e-05         	1.6913510575e-05	2.4133253192e-05	2.7725121276e-05	1.1592689211e-04
1.22e-05          	1.6649688076e-05	2.3751540348e-05	2.7274787756e-05	1.1428014952e-04
1.225e-05         	1.6363469200e-05	2.3377730840e-05	2.6831752771e-05	1.1265655661e-04
1.23e-05          	1.6080913808e-05	2.3012495728e-05	2.6396177187e-05	1.1105578840e-04
1.235e-05         	1.5802043553e-05	2.2653884342e-05	2.5968096463e-05	1.0947752398e-04
1.24e-05          	1.5528449568e-05	2.2302455701e-05	2.5546614144e-05	1.0792142813e-04
1.245e-05         	1.5260513806e-05	2.1957742459e-05	2.5131905311e-05	1.0638719719e-04
1.25e-05          	1.5039700221e-05	2.1619690680e-05	2.4725054912e-05	1.0487451399e-04
1.255e-05         	1.4797324308e-05	2.1290780830e-05	2.4325698976e-05	1.0338306743e-04
1.26e-05          	1.4535400946e-05	2.0967389999e-05	2.3932719350e-05	1.0191256400e-04
1.265e-05         	1.4301262813e-05	2.0650430766e-05	2.3546094098e-05	1.0046269976e-04
1.27e-05          	1.4057669431e-05	2.0339753504e-05	2.3166484577e-05	9.9033172475e-05
1.275e-05         	1.3827380372e-05	2.0037139901e-05	2.2793087315e-05	9.7623693306e-05
1.28e-05          	1.3622769363e-05	1.9740584667e-05	2.2426063276e-05	9.6233979195e-05
1.285e-05         	1.3409199524e-05	1.9450825845e-05	2.2065618435e-05	9.4863752466e-05
1.29e-05          	1.3183456292e-05	1.9168164483e-05	2.1711795501e-05	9.3512737322e-05
1.295e-05         	1.2962127028e-05	1.8891756618e-05	2.1364448136e-05	9.2180660113e-05
1.3e-05           	1.2768048456e-05	1.8620984496e-05	2.1023181175e-05	9.0867244379e-05
1.305e-05         	1.2592389760e-05	1.8354754025e-05	2.0687795132e-05	8.9572226558e-05
1.31e-05          	1.2356861216e-05	1.8092602709e-05	2.0358560929e-05	8.8295347590e-05
1.315e-05         	1.2168282261e-05	1.7837244400e-05	2.0035015607e-05	8.7036352983e-05
1.32e-05          	1.2003439696e-05	1.7588916795e-05	1.9717664967e-05	8.5794991848e-05
1.325e-05         	1.1830502914e-05	1.7342987064e-05	1.9405877457e-05	8.4571017311e-05
1.33e-05          	1.1666473111e-05	1.7099845394e-05	1.9100177615e-05	8.3364184246e-05
1.335e-05         	1.1498450854e-05	1.6859053158e-05	1.8798915369e-05	8.2174253946e-05
1.34e-05          	1.1293971690e-05	1.6623114618e-05	1.8501950943e-05	8.1000989239e-05
1.345e-05         	1.1066862456e-05	1.6395054791e-05	1.8210856070e-05	7.9844155601e-05
1.35e-05          	1.0896890881e-05	1.6176368608e-05	1.7924604096e-05	7.8703524421e-05
1.355e-05         	1.0742360784e-05	1.5963162811e-05	1.7643994575e-05	7.7578868049e-05
1.36e-05          	1.0582969298e-05	1.5753852046e-05	1.7367461631e-05	7.6469965071e-05
1.365e-05         	1.0433622515e-05	1.5547253205e-05	1.7096299385e-05	7.5376594015e-05
1.37e-05          	1.0242314712e-05	1.5344960136e-05	1.6830985023e-05	7.4298538690e-05
1.375e-05         	1.0076249486e-05	1.5149281573e-05	1.6570922227e-05	7.3235585575e-05
1.38e-05          	9.9311792975e-06	1.4957899948e-05	1.6314985661e-05	7.2187559825e-05
1.385e-05         	9.7759199395e-06	1.4769305116e-05	1.6064451778e-05	7.1154268615e-05
1.39e-05          	9.6002877212e-06	1.4583554701e-05	1.5818377641e-05	7.0135493882e-05
1.395e-05         	9.4585213358e-06	1.4403027035e-05	1.5577123388e-05	6.9131030141e-05
1.4e-05           	9.3135089948e-06	1.4228076837e-05	1.5340669573e-05	6.8140668035e-05
1.405e-05         	9.1915741570e-06	1.4057586204e-05	1.5108216462e-05	6.7164213763e-05
1.41e-05          	9.0178906480e-06	1.3889316801e-05	1.4879920355e-05	6.6201475929e-05
1.415e-05         	8.8558321489e-06	1.3724398869e-05	1.4655352857e-05	6.5252258577e-05
1.42e-05          	8.7052157710e-06	1.3563497471e-05	1.4434232013e-05	6.4316378560e-05
1.425e-05         	8.5580104204e-06	1.3406695118e-05	1.4217590286e-05	6.3393645173e-05
1.43e-05          	8.4133459419e-06	1.3252400903e-05	1.4005329578e-05	6.2483874839e-05
1.435e-05         	8.2962841293e-06	1.3102204504e-05	1.3796673314e-05	6.1586893085e-05
1.44e-05          	8.1820210462e-06	1.2955338311e-05	1.3592160823e-05	6.0702517947e-05
1.445e-05         	8.0579002748e-06	1.2811597382e-05	1.3391717112e-05	5.9830572661e-05
1.45e-05          	7.9221889479e-06	1.2671345623e-05	1.3194683327e-05	5.8970881355e-05
1.455e-05         	7.7733019037e-06	1.2534288905e-05	1.3001891657e-05	5.8123268384e-05
1.46e-05          	7.6663069100e-06	1.2401033306e-05	1.2813079773e-05	5.7287565766e-05
1.465e-05         	7.5473706919e-06	1.2270992466e-05	1.2627522774e-05	5.6463609202e-05
1.47e-05          	7.4354532866e-06	1.2142856625e-05	1.2445922386e-05	5.5651231203e-05
1.475e-05         	7.3306901847e-06	1.2018356119e-05	1.2267568694e-05	5.4850265016e-05
1.48e-05          	7.2393767535e-06	1.1897334588e-05	1.2093065938e-05	5.4060551717e-05
1.485e-05         	7.1228035238e-06	1.1779023329e-05	1.1922439878e-05	5.3281935392e-05
1.49e-05          	7.0198436152e-06	1.1664030270e-05	1.1755324089e-05	5.2514262606e-05
1.495e-05         	6.9025424629e-06	1.1551450243e-05	1.1591518510e-05	5.1757382457e-05
1.5e-05           	6.7964765063e-06	1.1440767985e-05	1.1432559853e-05	5.1011144990e-05
1.505e-05         	6.7025001728e-06	1.1333254181e-05	1.1277342595e-05	5.0275403307e-05
1.51e-05          	6.5893246958e-06	1.1227735567e-05	1.1126503853e-05	4.9550011780e-05
1.515e-05         	6.4841423071e-06	1.1124426836e-05	1.0978018248e-05	4.8834828160e-05
1.52e-05          	6.3988326400e-06	1.1022407281e-05	1.0832690646e-05	4.8129711097e-05
1.525e-05         	6.3102605461e-06	1.0922520425e-05	1.0692204180e-05	4.7434521156e-05
1.53e-05          	6.1977880028e-06	1.0824868586e-05	1.0556426993e-05	4.6749121351e-05
1.535e-05         	6.0740283982e-06	1.0729019451e-05	1.0423880439e-05	4.6073376851e-05
1.54e-05          	5.9807095166e-06	1.0634532698e-05	1.0297301889e-05	4.5407153348e-05
1.545e-05         	5.9135898787e-06	1.0541994388e-05	1.0175591772e-05	4.4750320034e-05
1.55e-05          	5.8426673474e-06	1.0451409369e-05	1.0059263941e-05	4.4102747385e-05
1.555e-05         	5.7674779336e-06	1.0361702316e-05	9.9475106691e-06	4.3464306749e-05
1.56e-05          	5.6918168071e-06	1.0272799526e-05	9.8395644127e-06	4.2834875116e-05
1.565e-05         	5.6130738149e-06	1.0186271589e-05	9.7376638382e-06	4.2214361726e-05
1.57e-05          	5.5187743864e-06	1.0101690899e-05	9.6401226837e-06	4.1602637794e-05
1.575e-05         	5.4281815336e-06	1.0017939786e-05	9.5432366978e-06	4.0999577843e-05
1.58e-05          	5.3545004361e-06	9.9349200367e-06	9.4470166424e-06	4.0405065530e-05
1.585e-05         	5.2805550659e-06	9.8527494297e-06	9.3526797751e-06	3.9818980994e-05
1.59e-05          	5.2097976474e-06	9.7718545989e-06	9.2597038576e-06	3.9241212127e-05
1.595e-05         	5.1257370619e-06	9.6921034600e-06	9.1684726874e-06	3.8671634074e-05
1.6e-05           	5.0529416108e-06	9.6139168139e-06	9.0780822495e-06	3.8110127666e-05
1.605e-05         	4.9944437723e-06	9.5368108813e-06	8.9878183021e-06	3.7556612896e-05
1.61e-05          	4.9294714077e-06	9.4604484587e-06	8.8986707802e-06	3.7010973035e-05
1.615e-05         	4.8664987385e-06	9.3847247161e-06	8.8113217757e-06	3.6473087922e-05
1.62e-05          	4.8106262435e-06	9.3102059628e-06	8.7256712878e-06	3.5942842509e-05
1.625e-05         	4.7505408465e-06	9.2369862728e-06	8.6405601278e-06	3.5420136455e-05
1.63e-05          	4.6774851943e-06	9.1645083069e-06	8.5556879994e-06	3.4904868257e-05
1.635e-05         	4.6186466205e-06	9.0922670286e-06	8.4719570039e-06	3.4396927470e-05
1.64e-05          	4.5487135982e-06	9.0210609152e-06	8.3900789794e-06	3.3896204206e-05
1.645e-05         	4.4836530407e-06	8.9511867794e-06	8.3086728566e-06	3.3402591988e-05
1.65e-05          	4.4192612151e-06	8.8820136403e-06	8.2281426950e-06	3.2915985374e-05
1.655e-05         	4.3560070874e-06	8.8134528306e-06	8.1484878073e-06	3.2436303008e-05
1.66e-05          	4.2988904383e-06	8.7455916448e-06	8.0700953771e-06	3.1963446762e-05
1.665e-05         	4.2419184516e-06	8.6787263336e-06	7.9922185963e-06	3.1497321690e-05
1.67e-05          	4.1896497495e-06	8.6126037412e-06	7.9153371483e-06	3.1037829494e-05
1.675e-05         	4.1354824171e-06	8.5471227619e-06	7.8401532318e-06	3.0584872189e-05
1.68e-05          	4.0816849586e-06	8.4825179700e-06	7.7653274123e-06	3.0138364155e-05
1.685e-05         	4.0330405744e-06	8.4187084647e-06	7.6907975372e-06	2.9698210413e-05
1.69e-05          	3.9879367838e-06	8.3551385338e-06	7.6174943361e-06	2.9264324234e-05
1.695e-05         	3.9353490980e-06	8.2923757801e-06	7.5452557307e-06	2.8836610585e-05
1.7e-05           	3.8881500382e-06	8.2302654479e-06	7.4739114822e-06	2.8414981709e-05
1.705e-05         	3.8422741729e-06	8.1687687849e-06	7.4032344670e-06	2.7999353433e-05
1.71e-05          	3.7980848980e-06	8.1078480134e-06	7.3332341191e-06	2.7589642947e-05
1.715e-05         	3.7545143865e-06	8.0475808275e-06	7.2649288429e-06	2.7185767252e-05